TITLE="fun3d_case_title"
VARIABLES="Iteration" "C_L" "C_D"
ZONE  I=2000 F=POINT
1  0.3370003068E+00  0.1331098973E+01
2000  0.3200000000E+00  0.1520000000E+01
