TITLE="fun3d_case_title"
VARIABLES="Iteration" "C_L" "C_D"
ZONE  I=5000 F=POINT
1  -0.1921885777E+00 -0.6618244454E+00
5000  0.3100000000E+00  0.1510000000E+01
