TITLE="fun3d_case_title"
VARIABLES="Iteration" "C_L" "C_D"
ZONE  I=2000 F=POINT
1  0.3442798252E+00  0.1343381425E+01
2000  0.3300000000E+00  0.1530000000E+01
